Program Version,EnergyPlus, Version 8.9.0-eba93e8e1b, YMD=2018.08.31 11:32
1,5,Environment Title[],Latitude[deg],Longitude[deg],Time Zone[],Elevation[m]
2,8,Day of Simulation[],Month[],Day of Month[],DST Indicator[1=yes 0=no],Hour[],StartMinute[],EndMinute[],DayType
3,5,Cumulative Day of Simulation[],Month[],Day of Month[],DST Indicator[1=yes 0=no],DayType  ! When Daily Meters Requested
4,2,Cumulative Days of Simulation[],Month[]  ! When Monthly Meters Requested
5,1,Cumulative Days of Simulation[] ! When Run Period Meters Requested
6,1,Calendar Year of Simulation[] ! When Annual Meters Requested
10,1,Electricity:Facility [J] !TimeStep
2215,1,Gas:Facility [J] !TimeStep
5530,1,ElectricityNet:Facility [J] !Hourly
11,1,Electricity:Facility [J] !Hourly
2216,1,Gas:Facility [J] !Hourly
2217,7,Gas:Facility [J] !Daily [Value,Min,Hour,Minute,Max,Hour,Minute]
12,7,Electricity:Facility [J] !Daily [Value,Min,Hour,Minute,Max,Hour,Minute]
End of Data Dictionary
1,RUN PERIOD 1,  39.74,-105.18,  -7.00,1829.00
2,1, 1, 1, 0, 1, 0.00,15.00,Sunday
10,58244737.99671344
2215,15705505.46433443
2,1, 1, 1, 0, 1,15.00,30.00,Sunday
10,57589993.35449075
2215,23532957.204578565
2,1, 1, 1, 0, 1,30.00,45.00,Sunday
10,56936452.02895588
2215,17449324.371972953
2,1, 1, 1, 0, 1,45.00,60.00,Sunday
10,56359477.04154909
2215,13829402.801150358
2,1, 1, 1, 0, 1, 0.00,60.00,Sunday
11,229130660.42170916
2216,70517189.84203629
5530,229130660.42170928
2,1, 1, 1, 0, 2, 0.00,15.00,Sunday
10,56449902.849260199
2215,24313557.411891577
2,1, 1, 1, 0, 2,15.00,30.00,Sunday
10,56496057.98874491
2215,13185923.26690171
2,1, 1, 1, 0, 2,30.00,45.00,Sunday
10,56518652.48735931
2215,25490326.145476365
2,1, 1, 1, 0, 2,45.00,60.00,Sunday
10,56557884.21195614
2215,13427855.515676137
2,1, 1, 1, 0, 2, 0.00,60.00,Sunday
11,226022497.53732056
2216,76417662.33994578
5530,226022497.53732068
2,1, 1, 1, 0, 3, 0.00,15.00,Sunday
10,55037156.27126947
2215,13670389.930134554
2,1, 1, 1, 0, 3,15.00,30.00,Sunday
10,55064704.993031788
2215,26127769.80346843
2,1, 1, 1, 0, 3,30.00,45.00,Sunday
10,55105764.25408604
2215,14149575.163259604
2,1, 1, 1, 0, 3,45.00,60.00,Sunday
10,55155032.12541311
2215,21891599.506704987
2,1, 1, 1, 0, 3, 0.00,60.00,Sunday
11,220362657.6438004
2216,75839334.40356758
5530,220362657.64380063
2,1, 1, 1, 0, 4, 0.00,15.00,Sunday
10,55023502.29635098
2215,18752327.22608589
2,1, 1, 1, 0, 4,15.00,30.00,Sunday
10,54861012.16246717
2215,13695772.612449123
2,1, 1, 1, 0, 4,30.00,45.00,Sunday
10,54673957.72352234
2215,25518337.007553694
2,1, 1, 1, 0, 4,45.00,60.00,Sunday
10,54488707.679873798
2215,12996193.834689476
2,1, 1, 1, 0, 4, 0.00,60.00,Sunday
11,219047179.86221428
2216,70962630.68077818
5530,219047179.86221446
2,1, 1, 1, 0, 5, 0.00,15.00,Sunday
10,55970555.300033967
2215,17886882.59536876
2,1, 1, 1, 0, 5,15.00,30.00,Sunday
10,56008074.950260329
2215,28607380.691121714
2,1, 1, 1, 0, 5,30.00,45.00,Sunday
10,56050946.46207749
2215,13355491.081174002
2,1, 1, 1, 0, 5,45.00,60.00,Sunday
10,56075771.79633383
2215,25769761.852046014
2,1, 1, 1, 0, 5, 0.00,60.00,Sunday
11,224105348.50870563
2216,85619516.21971049
5530,224105348.5087058
2,1, 1, 1, 0, 6, 0.00,15.00,Sunday
10,61138494.03686642
2215,20809882.334534654
2,1, 1, 1, 0, 6,15.00,30.00,Sunday
10,60916554.06231536
2215,14462699.902531345
2,1, 1, 1, 0, 6,30.00,45.00,Sunday
10,60685091.435783769
2215,23407726.388161497
2,1, 1, 1, 0, 6,45.00,60.00,Sunday
10,60436711.503091167
2215,10470160.952704888
2,1, 1, 1, 0, 6, 0.00,60.00,Sunday
11,243176851.0380567
2216,69150469.57793239
5530,243176851.0380568
2,1, 1, 1, 0, 7, 0.00,15.00,Sunday
10,75836293.27204116
2215,19692048.40807856
2,1, 1, 1, 0, 7,15.00,30.00,Sunday
10,75742179.73139502
2215,19776516.9078345
2,1, 1, 1, 0, 7,30.00,45.00,Sunday
10,75809303.03853439
2215,19866733.46573779
2,1, 1, 1, 0, 7,45.00,60.00,Sunday
10,75785753.85169828
2215,6971883.471730389
2,1, 1, 1, 0, 7, 0.00,60.00,Sunday
11,303173529.89366886
2216,66307182.25338124
5530,303173529.893669
2,1, 1, 1, 0, 8, 0.00,15.00,Sunday
10,96351785.50200325
2215,22059669.266920307
2,1, 1, 1, 0, 8,15.00,30.00,Sunday
10,92416221.52066776
2215,27017222.72865278
2,1, 1, 1, 0, 8,30.00,45.00,Sunday
10,92179090.99796367
2215,17418668.680741908
2,1, 1, 1, 0, 8,45.00,60.00,Sunday
10,91931295.67022954
2215,17312965.22797316
2,1, 1, 1, 0, 8, 0.00,60.00,Sunday
11,372878393.6908642
2216,83808525.90428816
5530,372878393.6908643
2,1, 1, 1, 0, 9, 0.00,15.00,Sunday
10,94685340.09925048
2215,53063047.19234521
2,1, 1, 1, 0, 9,15.00,30.00,Sunday
10,94624381.51528523
2215,54951192.14923747
2,1, 1, 1, 0, 9,30.00,45.00,Sunday
10,94457336.57090293
2215,52875149.665555838
2,1, 1, 1, 0, 9,45.00,60.00,Sunday
10,94295964.21880064
2215,57563333.66290198
2,1, 1, 1, 0, 9, 0.00,60.00,Sunday
11,378063022.4042393
2216,218452722.6700405
5530,378063022.40423926
2,1, 1, 1, 0,10, 0.00,15.00,Sunday
10,78282236.85647688
2215,82480544.44640205
2,1, 1, 1, 0,10,15.00,30.00,Sunday
10,78611837.52127196
2215,80446542.01263458
2,1, 1, 1, 0,10,30.00,45.00,Sunday
10,78618631.05339667
2215,79017171.16641119
2,1, 1, 1, 0,10,45.00,60.00,Sunday
10,78493421.92988158
2215,80459316.46719022
2,1, 1, 1, 0,10, 0.00,60.00,Sunday
11,314006127.3610271
2216,322403574.092638
5530,314006127.3610272
2,1, 1, 1, 0,11, 0.00,15.00,Sunday
10,62081653.3861485
2215,80215347.90389814
2,1, 1, 1, 0,11,15.00,30.00,Sunday
10,62008176.735956247
2215,81874796.03570982
2,1, 1, 1, 0,11,30.00,45.00,Sunday
10,61928115.73675249
2215,83244454.7040366
2,1, 1, 1, 0,11,45.00,60.00,Sunday
10,61947057.201680388
2215,85187499.30262524
2,1, 1, 1, 0,11, 0.00,60.00,Sunday
11,247965003.0605376
2216,330522097.94626978
5530,247965003.0605377
2,1, 1, 1, 0,12, 0.00,15.00,Sunday
10,60944526.22205724
2215,85229579.03681684
2,1, 1, 1, 0,12,15.00,30.00,Sunday
10,60993142.702239248
2215,72634952.32412422
2,1, 1, 1, 0,12,30.00,45.00,Sunday
10,61096686.86937839
2215,85538474.85651338
2,1, 1, 1, 0,12,45.00,60.00,Sunday
10,61199159.67497555
2215,82836469.5607123
2,1, 1, 1, 0,12, 0.00,60.00,Sunday
11,244233515.46865044
2216,326239475.7781667
5530,244233515.46865047
2,1, 1, 1, 0,13, 0.00,15.00,Sunday
10,60631196.09341383
2215,70072451.22032473
2,1, 1, 1, 0,13,15.00,30.00,Sunday
10,60442305.050704058
2215,82163636.88976668
2,1, 1, 1, 0,13,30.00,45.00,Sunday
10,60303090.55164566
2215,69520929.54868251
2,1, 1, 1, 0,13,45.00,60.00,Sunday
10,60176774.78979026
2215,81634904.42019019
2,1, 1, 1, 0,13, 0.00,60.00,Sunday
11,241553366.4855538
2216,303391922.0789641
5530,241553366.48555387
2,1, 1, 1, 0,14, 0.00,15.00,Sunday
10,60785426.51516949
2215,69734458.74920999
2,1, 1, 1, 0,14,15.00,30.00,Sunday
10,60864986.316683109
2215,82466658.32020408
2,1, 1, 1, 0,14,30.00,45.00,Sunday
10,61036859.74121765
2215,71821963.15317989
2,1, 1, 1, 0,14,45.00,60.00,Sunday
10,61150768.01395925
2215,75260480.14854378
2,1, 1, 1, 0,14, 0.00,60.00,Sunday
11,243838040.5870295
2216,299283560.37113776
5530,243838040.58702965
2,1, 1, 1, 0,15, 0.00,15.00,Sunday
10,61404656.93120559
2215,78879122.05154364
2,1, 1, 1, 0,15,15.00,30.00,Sunday
10,61566358.79447609
2215,68183701.70588947
2,1, 1, 1, 0,15,30.00,45.00,Sunday
10,61739398.98165256
2215,80650503.78009531
2,1, 1, 1, 0,15,45.00,60.00,Sunday
10,61904102.2745881
2215,68444666.74546343
2,1, 1, 1, 0,15, 0.00,60.00,Sunday
11,246614516.98192237
2216,296157994.2829919
5530,246614516.98192246
2,1, 1, 1, 0,16, 0.00,15.00,Sunday
10,61807167.60148068
2215,81975695.15877657
2,1, 1, 1, 0,16,15.00,30.00,Sunday
10,61829204.6375731
2215,69621281.92154722
2,1, 1, 1, 0,16,30.00,45.00,Sunday
10,61901221.40525467
2215,85057133.71376026
2,1, 1, 1, 0,16,45.00,60.00,Sunday
10,61966882.95888672
2215,72771183.8046714
2,1, 1, 1, 0,16, 0.00,60.00,Sunday
11,247504476.60319517
2216,309425294.5987555
5530,247504476.60319526
2,1, 1, 1, 0,17, 0.00,15.00,Sunday
10,73166123.07235123
2215,57769400.69655702
2,1, 1, 1, 0,17,15.00,30.00,Sunday
10,69840478.3406909
2215,41143928.49231981
2,1, 1, 1, 0,17,30.00,45.00,Sunday
10,73269405.20493216
2215,53702196.59032635
2,1, 1, 1, 0,17,45.00,60.00,Sunday
10,73352353.41598107
2215,41430835.58608721
2,1, 1, 1, 0,17, 0.00,60.00,Sunday
11,289628360.03395536
2216,194046361.3652904
5530,289628360.0339556
2,1, 1, 1, 0,18, 0.00,15.00,Sunday
10,85940863.20312085
2215,18090202.24488927
2,1, 1, 1, 0,18,15.00,30.00,Sunday
10,85902596.04819572
2215,5651412.487558379
2,1, 1, 1, 0,18,30.00,45.00,Sunday
10,86653661.60788223
2215,18420818.3731671
2,1, 1, 1, 0,18,45.00,60.00,Sunday
10,87260423.4550103
2215,18606738.352571068
2,1, 1, 1, 0,18, 0.00,60.00,Sunday
11,345757544.3142091
2216,60769171.45818582
5530,345757544.31420937
2,1, 1, 1, 0,19, 0.00,15.00,Sunday
10,86232316.21383633
2215,7098661.957636743
2,1, 1, 1, 0,19,15.00,30.00,Sunday
10,86378321.39622583
2215,20053730.384857999
2,1, 1, 1, 0,19,30.00,45.00,Sunday
10,86442793.47330685
2215,20199034.078686429
2,1, 1, 1, 0,19,45.00,60.00,Sunday
10,86495781.25883463
2215,7598029.093320166
2,1, 1, 1, 0,19, 0.00,60.00,Sunday
11,345549212.3422036
2216,54949455.51450134
5530,345549212.3422037
2,1, 1, 1, 0,20, 0.00,15.00,Sunday
10,85088762.6348376
2215,21299679.609947765
2,1, 1, 1, 0,20,15.00,30.00,Sunday
10,85352250.65651006
2215,21761635.29651496
2,1, 1, 1, 0,20,30.00,45.00,Sunday
10,85606195.65081227
2215,22238987.089874373
2,1, 1, 1, 0,20,45.00,60.00,Sunday
10,85868317.99968867
2215,22646382.392340516
2,1, 1, 1, 0,20, 0.00,60.00,Sunday
11,341915526.9418486
2216,87946684.38867761
5530,341915526.94184866
2,1, 1, 1, 0,21, 0.00,15.00,Sunday
10,88937692.04075666
2215,23054958.69056527
2,1, 1, 1, 0,21,15.00,30.00,Sunday
10,88926417.08059995
2215,19358932.081084506
2,1, 1, 1, 0,21,30.00,45.00,Sunday
10,88894053.96797507
2215,21675371.642962666
2,1, 1, 1, 0,21,45.00,60.00,Sunday
10,88855543.87644127
2215,23340913.461635405
2,1, 1, 1, 0,21, 0.00,60.00,Sunday
11,355613706.965773
2216,87430175.87624786
5530,355613706.96577307
2,1, 1, 1, 0,22, 0.00,15.00,Sunday
10,86290775.55004496
2215,23628301.705136777
2,1, 1, 1, 0,22,15.00,30.00,Sunday
10,86313430.61117563
2215,23789594.254337066
2,1, 1, 1, 0,22,30.00,45.00,Sunday
10,86317796.41860292
2215,23954906.66725971
2,1, 1, 1, 0,22,45.00,60.00,Sunday
10,86322708.20862828
2215,24091509.259149579
2,1, 1, 1, 0,22, 0.00,60.00,Sunday
11,345244710.7884518
2216,95464311.88588314
5530,345244710.7884519
2,1, 1, 1, 0,23, 0.00,15.00,Sunday
10,74293876.51304743
2215,26907077.088507207
2,1, 1, 1, 0,23,15.00,30.00,Sunday
10,74462817.22376049
2215,27454476.864446913
2,1, 1, 1, 0,23,30.00,45.00,Sunday
10,74660387.79859957
2215,27895410.42911053
2,1, 1, 1, 0,23,45.00,60.00,Sunday
10,74884719.95504169
2215,28918649.30702456
2,1, 1, 1, 0,23, 0.00,60.00,Sunday
11,298301801.4904492
2216,111175613.68908921
5530,298301801.4904494
2,1, 1, 1, 0,24, 0.00,15.00,Sunday
10,61983409.28217087
2215,29361970.98046903
2,1, 1, 1, 0,24,15.00,30.00,Sunday
10,62082336.097320947
2215,29495159.373655399
2,1, 1, 1, 0,24,30.00,45.00,Sunday
10,62178887.28034038
2215,29560111.506753159
2,1, 1, 1, 0,24,45.00,60.00,Sunday
10,62261477.67452349
2215,28348883.99957295
2,1, 1, 1, 0,24, 0.00,60.00,Sunday
11,248506110.33435566
2216,116766125.86045054
5530,248506110.3343557
3,1, 1, 1, 0,Sunday
12,6772192160.759742,54488707.679873798, 4,60,96351785.50200325, 8,15
2217,3813047053.078931,5651412.487558379,18,30,85538474.85651338,12,45
2,2, 1, 2, 0, 1, 0.00,15.00,Monday
10,58365876.81635371
2215,18203797.767458366
2,2, 1, 2, 0, 1,15.00,30.00,Monday
10,58215139.605059828
2215,24188833.360699927
2,2, 1, 2, 0, 1,30.00,45.00,Monday
10,58039985.88365856
2215,22760556.90878891
2,2, 1, 2, 0, 1,45.00,60.00,Monday
10,57777970.82936693
2215,25333939.525523217
2,2, 1, 2, 0, 1, 0.00,60.00,Monday
11,232398973.13443903
2216,90487127.5624704
5530,232398973.1344392
2,2, 1, 2, 0, 2, 0.00,15.00,Monday
10,57439174.33251045
2215,30095181.05162974
2,2, 1, 2, 0, 2,15.00,30.00,Monday
10,57585725.63466616
2215,18144491.78837247
2,2, 1, 2, 0, 2,30.00,45.00,Monday
10,57733706.244882468
2215,30606168.16840017
2,2, 1, 2, 0, 2,45.00,60.00,Monday
10,57937103.079675588
2215,18701741.27999511
2,2, 1, 2, 0, 2, 0.00,60.00,Monday
11,230695709.29173468
2216,97547582.28839749
5530,230695709.2917348
2,2, 1, 2, 0, 3, 0.00,15.00,Monday
10,57446280.91801734
2215,18779288.03549636
2,2, 1, 2, 0, 3,15.00,30.00,Monday
10,57586852.32976446
2215,31071695.08356026
2,2, 1, 2, 0, 3,30.00,45.00,Monday
10,57694806.63594034
2215,18921992.997722053
2,2, 1, 2, 0, 3,45.00,60.00,Monday
10,57775511.13459605
2215,25917315.571307068
2,2, 1, 2, 0, 3, 0.00,60.00,Monday
11,230503451.0183182
2216,94690291.68808574
5530,230503451.01831839
2,2, 1, 2, 0, 4, 0.00,15.00,Monday
10,58293839.123421799
2215,24653143.230282539
2,2, 1, 2, 0, 4,15.00,30.00,Monday
10,58782054.20537164
2215,19742852.875130439
2,2, 1, 2, 0, 4,30.00,45.00,Monday
10,59251378.82586487
2215,32270011.065914856
2,2, 1, 2, 0, 4,45.00,60.00,Monday
10,59795539.42929692
2215,20455224.2221153
2,2, 1, 2, 0, 4, 0.00,60.00,Monday
11,236122811.58395524
2216,97121231.39344314
5530,236122811.58395548
2,2, 1, 2, 0, 5, 0.00,15.00,Monday
10,61591200.23325855
2215,25551373.7825239
2,2, 1, 2, 0, 5,15.00,30.00,Monday
10,61959190.36217718
2215,28575064.20385673
2,2, 1, 2, 0, 5,30.00,45.00,Monday
10,62342349.81247387
2215,21309137.335156245
2,2, 1, 2, 0, 5,45.00,60.00,Monday
10,62732321.2636549
2215,33921107.40131992
2,2, 1, 2, 0, 5, 0.00,60.00,Monday
11,248625061.67156453
2216,109356682.72285679
5530,248625061.67156465
2,2, 1, 2, 0, 6, 0.00,15.00,Monday
10,69789858.64634636
2215,40570289.75400613
2,2, 1, 2, 0, 6,15.00,30.00,Monday
10,70664161.71255207
2215,23416019.8514696
2,2, 1, 2, 0, 6,30.00,45.00,Monday
10,71606409.32327934
2215,30904294.375753046
2,2, 1, 2, 0, 6,45.00,60.00,Monday
10,72620754.5706552
2215,34575005.18218292
2,2, 1, 2, 0, 6, 0.00,60.00,Monday
11,284681184.252833
2216,129465609.16341169
5530,284681184.252833
2,2, 1, 2, 0, 7, 0.00,15.00,Monday
10,91992623.80046955
2215,30909924.098269758
2,2, 1, 2, 0, 7,15.00,30.00,Monday
10,91607555.27703128
2215,30749181.76228291
2,2, 1, 2, 0, 7,30.00,45.00,Monday
10,91288110.4216704
2215,44051723.553751017
2,2, 1, 2, 0, 7,45.00,60.00,Monday
10,91018777.14362136
2215,30922236.889402868
2,2, 1, 2, 0, 7, 0.00,60.00,Monday
11,365907066.6427926
2216,136633066.30370657
5530,365907066.64279267
2,2, 1, 2, 0, 8, 0.00,15.00,Monday
10,118036723.2450284
2215,28599794.0744759
2,2, 1, 2, 0, 8,15.00,30.00,Monday
10,113790326.97989764
2215,43298652.36690877
2,2, 1, 2, 0, 8,30.00,45.00,Monday
10,113255078.48134206
2215,27929139.289999013
2,2, 1, 2, 0, 8,45.00,60.00,Monday
10,112703959.54242517
2215,42559436.445324469
2,2, 1, 2, 0, 8, 0.00,60.00,Monday
11,457786088.2486933
2216,142387022.17670817
5530,457786088.2486933
2,2, 1, 2, 0, 9, 0.00,15.00,Monday
10,91113006.11806661
2215,51729071.21764078
2,2, 1, 2, 0, 9,15.00,30.00,Monday
10,90094128.03952649
2215,51246634.31538969
2,2, 1, 2, 0, 9,30.00,45.00,Monday
10,89097361.00805788
2215,53284096.69698301
2,2, 1, 2, 0, 9,45.00,60.00,Monday
10,88109154.60138378
2215,52558086.395659979
2,2, 1, 2, 0, 9, 0.00,60.00,Monday
11,358413649.76703479
2216,208817888.62567348
5530,358413649.7670349
2,2, 1, 2, 0,10, 0.00,15.00,Monday
10,80553508.37781592
2215,88096483.51833186
2,2, 1, 2, 0,10,15.00,30.00,Monday
10,79905871.21739194
2215,87110511.20956125
2,2, 1, 2, 0,10,30.00,45.00,Monday
10,79295273.21071328
2215,83906729.10703895
2,2, 1, 2, 0,10,45.00,60.00,Monday
10,78888778.10133215
2215,81698258.29753652
2,2, 1, 2, 0,10, 0.00,60.00,Monday
11,318643430.90725329
2216,340811982.1324686
5530,318643430.9072534
2,2, 1, 2, 0,11, 0.00,15.00,Monday
10,65670865.87785453
2215,73441385.04959981
2,2, 1, 2, 0,11,15.00,30.00,Monday
10,65484180.543203677
2215,86193075.57193434
2,2, 1, 2, 0,11,30.00,45.00,Monday
10,65247507.46370009
2215,86045711.18265331
2,2, 1, 2, 0,11,45.00,60.00,Monday
10,64899804.03421726
2215,74640950.19667638
2,2, 1, 2, 0,11, 0.00,60.00,Monday
11,261302357.91897557
2216,320321122.00086387
5530,261302357.91897569
2,2, 1, 2, 0,12, 0.00,15.00,Monday
10,64266378.82776286
2215,89123015.95387228
2,2, 1, 2, 0,12,15.00,30.00,Monday
10,63904681.38157016
2215,76540514.15557169
2,2, 1, 2, 0,12,30.00,45.00,Monday
10,63612302.90117604
2215,88907374.18365288
2,2, 1, 2, 0,12,45.00,60.00,Monday
10,63340951.558951709
2215,76496551.36380753
2,2, 1, 2, 0,12, 0.00,60.00,Monday
11,255124314.66946078
2216,331067455.65690436
5530,255124314.6694608
2,2, 1, 2, 0,13, 0.00,15.00,Monday
10,62864015.34712262
2215,87370297.54147673
2,2, 1, 2, 0,13,15.00,30.00,Monday
10,62902976.70455475
2215,74676824.8509135
2,2, 1, 2, 0,13,30.00,45.00,Monday
10,63033590.16058774
2215,86932704.87889815
2,2, 1, 2, 0,13,45.00,60.00,Monday
10,63211763.9776767
2215,74506635.4725696
2,2, 1, 2, 0,13, 0.00,60.00,Monday
11,252012346.18994183
2216,323486462.743858
5530,252012346.18994186
2,2, 1, 2, 0,14, 0.00,15.00,Monday
10,63861481.49644042
2215,84377314.310079
2,2, 1, 2, 0,14,15.00,30.00,Monday
10,63882402.61862107
2215,74395883.23336119
2,2, 1, 2, 0,14,30.00,45.00,Monday
10,63750595.607106249
2215,87272758.3720912
2,2, 1, 2, 0,14,45.00,60.00,Monday
10,63403868.590856928
2215,74729982.76375121
2,2, 1, 2, 0,14, 0.00,60.00,Monday
11,254898348.31302465
2216,320775938.67928257
5530,254898348.31302483
2,2, 1, 2, 0,15, 0.00,15.00,Monday
10,63673696.64440608
2215,87287390.34195702
2,2, 1, 2, 0,15,15.00,30.00,Monday
10,63909367.350877318
2215,74084853.5209066
2,2, 1, 2, 0,15,30.00,45.00,Monday
10,64149233.21236635
2215,84457578.48797845
2,2, 1, 2, 0,15,45.00,60.00,Monday
10,64451485.59341033
2215,72310064.14357993
2,2, 1, 2, 0,15, 0.00,60.00,Monday
11,256183782.80106009
2216,318139886.49442198
5530,256183782.80106027
2,2, 1, 2, 0,16, 0.00,15.00,Monday
10,64594357.14251611
2215,85990700.13284558
2,2, 1, 2, 0,16,15.00,30.00,Monday
10,64881429.606852058
2215,73769990.50403257
2,2, 1, 2, 0,16,30.00,45.00,Monday
10,65200796.52954396
2215,86697628.24877425
2,2, 1, 2, 0,16,45.00,60.00,Monday
10,65488886.8572353
2215,77225064.23793108
2,2, 1, 2, 0,16, 0.00,60.00,Monday
11,260165470.13614745
2216,323683383.12358346
5530,260165470.13614757
2,2, 1, 2, 0,17, 0.00,15.00,Monday
10,75435833.48765898
2215,57280861.26868264
2,2, 1, 2, 0,17,15.00,30.00,Monday
10,72894337.04118976
2215,50101234.383982557
2,2, 1, 2, 0,17,30.00,45.00,Monday
10,76357279.88265743
2215,44724662.34533226
2,2, 1, 2, 0,17,45.00,60.00,Monday
10,76391866.01381476
2215,57204943.06661135
2,2, 1, 2, 0,17, 0.00,60.00,Monday
11,301079316.4253209
2216,209311701.0646088
5530,301079316.425321
2,2, 1, 2, 0,18, 0.00,15.00,Monday
10,95529958.17187229
2215,21536693.29018092
2,2, 1, 2, 0,18,15.00,30.00,Monday
10,95724250.23016602
2215,8777266.993310959
2,2, 1, 2, 0,18,30.00,45.00,Monday
10,96162316.20864375
2215,21590430.502280065
2,2, 1, 2, 0,18,45.00,60.00,Monday
10,96516737.23330103
2215,21620301.498565619
2,2, 1, 2, 0,18, 0.00,60.00,Monday
11,383933261.8439831
2216,73524692.28433757
5530,383933261.8439832
2,2, 1, 2, 0,19, 0.00,15.00,Monday
10,87139415.80774129
2215,24904089.69167523
2,2, 1, 2, 0,19,15.00,30.00,Monday
10,87374518.21593465
2215,25311764.110556686
2,2, 1, 2, 0,19,30.00,45.00,Monday
10,87591009.2304386
2215,25633711.380036907
2,2, 1, 2, 0,19,45.00,60.00,Monday
10,87819557.73128142
2215,25918057.390775458
2,2, 1, 2, 0,19, 0.00,60.00,Monday
11,349924500.9853959
2216,101767622.57304429
5530,349924500.9853959
2,2, 1, 2, 0,20, 0.00,15.00,Monday
10,87161249.16863364
2215,25820150.268597455
2,2, 1, 2, 0,20,15.00,30.00,Monday
10,87463982.47408593
2215,26193178.470030399
2,2, 1, 2, 0,20,30.00,45.00,Monday
10,87791420.28131888
2215,26631604.84304142
2,2, 1, 2, 0,20,45.00,60.00,Monday
10,88173358.19411
2215,27080858.985258998
2,2, 1, 2, 0,20, 0.00,60.00,Monday
11,350590010.11814847
2216,105725792.56692827
5530,350590010.11814859
2,2, 1, 2, 0,21, 0.00,15.00,Monday
10,91683896.12346109
2215,17913278.103408714
2,2, 1, 2, 0,21,15.00,30.00,Monday
10,91473120.9986745
2215,31807623.053037377
2,2, 1, 2, 0,21,30.00,45.00,Monday
10,91275212.0519155
2215,27540053.35159079
2,2, 1, 2, 0,21,45.00,60.00,Monday
10,91062150.20017948
2215,27521253.469036119
2,2, 1, 2, 0,21, 0.00,60.00,Monday
11,365494379.3742305
2216,104782207.977073
5530,365494379.3742306
2,2, 1, 2, 0,22, 0.00,15.00,Monday
10,87125543.86407924
2215,29518693.775791035
2,2, 1, 2, 0,22,15.00,30.00,Monday
10,87145694.23892012
2215,31459346.045552724
2,2, 1, 2, 0,22,30.00,45.00,Monday
10,87234605.66850773
2215,41742348.002177629
2,2, 1, 2, 0,22,45.00,60.00,Monday
10,87307366.93327707
2215,29657820.09395083
2,2, 1, 2, 0,22, 0.00,60.00,Monday
11,348813210.70478418
2216,132378207.91747222
5530,348813210.7047843
2,2, 1, 2, 0,23, 0.00,15.00,Monday
10,74730039.42475336
2215,31329700.60279551
2,2, 1, 2, 0,23,15.00,30.00,Monday
10,74997647.7469745
2215,31647682.0302862
2,2, 1, 2, 0,23,30.00,45.00,Monday
10,75298106.84790817
2215,31966947.588395545
2,2, 1, 2, 0,23,45.00,60.00,Monday
10,75619921.35725758
2215,32272233.788987705
2,2, 1, 2, 0,23, 0.00,60.00,Monday
11,300645715.3768936
2216,127216564.01046497
5530,300645715.37689378
2,2, 1, 2, 0,24, 0.00,15.00,Monday
10,65217326.015212219
2215,21055571.48585309
2,2, 1, 2, 0,24,15.00,30.00,Monday
10,65544170.549894478
2215,33556974.80158014
2,2, 1, 2, 0,24,30.00,45.00,Monday
10,65764331.0369926
2215,20992219.88510511
2,2, 1, 2, 0,24,45.00,60.00,Monday
10,65907401.12435684
2215,33611731.49119118
2,2, 1, 2, 0,24, 0.00,60.00,Monday
11,262433228.72645615
2216,109216497.66372952
5530,262433228.72645626
3,2, 1, 2, 0,Monday
12,7166377670.102443,57439174.33251045, 2,15,118036723.2450284, 8,15
2217,4348716018.813794,8777266.993310959,18,30,89123015.95387228,12,15
2,3, 1, 3, 0, 1, 0.00,15.00,Tuesday
10,63485356.49080957
2215,22561958.728882754
2,3, 1, 3, 0, 1,15.00,30.00,Tuesday
10,63842108.15111558
2215,32648146.42074626
2,3, 1, 3, 0, 1,30.00,45.00,Tuesday
10,64135788.82072304
2215,21756514.252623314
2,3, 1, 3, 0, 1,45.00,60.00,Tuesday
10,64423760.91658333
2215,42199943.71768991
2,3, 1, 3, 0, 1, 0.00,60.00,Tuesday
11,255887014.37923155
2216,119166563.11994222
5530,255887014.37923167
2,3, 1, 3, 0, 2, 0.00,15.00,Tuesday
10,64297617.22256309
2215,22164829.482175635
2,3, 1, 3, 0, 2,15.00,30.00,Tuesday
10,64620249.38592271
2215,34535627.556745517
2,3, 1, 3, 0, 2,30.00,45.00,Tuesday
10,64887078.00007476
2215,22468677.49330369
2,3, 1, 3, 0, 2,45.00,60.00,Tuesday
10,65222767.97824022
2215,22616793.467417029
2,3, 1, 3, 0, 2, 0.00,60.00,Tuesday
11,259027712.58680079
2216,101785927.99964187
5530,259027712.58680088
2,3, 1, 3, 0, 3, 0.00,15.00,Tuesday
10,65006044.95976921
2215,34982892.28630221
2,3, 1, 3, 0, 3,15.00,30.00,Tuesday
10,65353562.84455145
2215,22977560.771437497
2,3, 1, 3, 0, 3,30.00,45.00,Tuesday
10,65676984.67137048
2215,35368668.054046008
2,3, 1, 3, 0, 3,45.00,60.00,Tuesday
10,66161637.84478634
2215,23355124.50113684
2,3, 1, 3, 0, 3, 0.00,60.00,Tuesday
11,262198230.3204775
2216,116684245.61292255
5530,262198230.32047767
2,3, 1, 3, 0, 4, 0.00,15.00,Tuesday
10,66626193.11485534
2215,23526519.992137825
2,3, 1, 3, 0, 4,15.00,30.00,Tuesday
10,67089750.75545606
2215,35931104.3726079
2,3, 1, 3, 0, 4,30.00,45.00,Tuesday
10,67545573.23490988
2215,23873612.882279736
2,3, 1, 3, 0, 4,45.00,60.00,Tuesday
10,67992482.99825585
2215,24043074.626497464
2,3, 1, 3, 0, 4, 0.00,60.00,Tuesday
11,269254000.1034771
2216,107374311.87352292
5530,269254000.1034773
2,3, 1, 3, 0, 5, 0.00,15.00,Tuesday
10,69340705.38520034
2215,36368393.97747302
2,3, 1, 3, 0, 5,15.00,30.00,Tuesday
10,69217222.37057972
2215,24004272.761225687
2,3, 1, 3, 0, 5,30.00,45.00,Tuesday
10,69064944.42813555
2215,36341139.53537798
2,3, 1, 3, 0, 5,45.00,60.00,Tuesday
10,68902058.24892126
2215,23959799.735171677
2,3, 1, 3, 0, 5, 0.00,60.00,Tuesday
11,276524930.43283686
2216,120673606.00924836
5530,276524930.432837
2,3, 1, 3, 0, 6, 0.00,15.00,Tuesday
10,75024384.60649826
2215,42227588.561693597
2,3, 1, 3, 0, 6,15.00,30.00,Tuesday
10,74923790.7745419
2215,34375276.125392239
2,3, 1, 3, 0, 6,30.00,45.00,Tuesday
10,74815709.00697555
2215,34313666.6416323
2,3, 1, 3, 0, 6,45.00,60.00,Tuesday
10,74722125.33152184
2215,21661192.63402231
2,3, 1, 3, 0, 6, 0.00,60.00,Tuesday
11,299486009.7195375
2216,132577723.96274045
5530,299486009.7195376
2,3, 1, 3, 0, 7, 0.00,15.00,Tuesday
10,93601147.9581899
2215,43964870.33944668
2,3, 1, 3, 0, 7,15.00,30.00,Tuesday
10,92964573.78200342
2215,30684462.35779307
2,3, 1, 3, 0, 7,30.00,45.00,Tuesday
10,92444084.85500513
2215,30599146.120850918
2,3, 1, 3, 0, 7,45.00,60.00,Tuesday
10,92007670.8093356
2215,30496560.656330289
2,3, 1, 3, 0, 7, 0.00,60.00,Tuesday
11,371017477.40453407
2216,135745039.47442097
5530,371017477.4045342
2,3, 1, 3, 0, 8, 0.00,15.00,Tuesday
10,120393447.87419585
2215,44612717.11574
2,3, 1, 3, 0, 8,15.00,30.00,Tuesday
10,117470727.52973233
2215,30114528.003563789
2,3, 1, 3, 0, 8,30.00,45.00,Tuesday
10,118358399.17274878
2215,45577562.79198603
2,3, 1, 3, 0, 8,45.00,60.00,Tuesday
10,119318587.86658679
2215,30931573.561982197
2,3, 1, 3, 0, 8, 0.00,60.00,Tuesday
11,475541162.44326379
2216,151236381.47327204
5530,475541162.4432637
2,3, 1, 3, 0, 9, 0.00,15.00,Tuesday
10,96162783.87694265
2215,54612496.172047618
2,3, 1, 3, 0, 9,15.00,30.00,Tuesday
10,94491503.09265822
2215,53480113.19586485
2,3, 1, 3, 0, 9,30.00,45.00,Tuesday
10,92873564.90611808
2215,61379953.13553882
2,3, 1, 3, 0, 9,45.00,60.00,Tuesday
10,91355421.52040932
2215,61113752.57766351
2,3, 1, 3, 0, 9, 0.00,60.00,Tuesday
11,374883273.3961283
2216,230586315.0811148
5530,374883273.3961283
2,3, 1, 3, 0,10, 0.00,15.00,Tuesday
10,82400131.17486288
2215,80924248.20917483
2,3, 1, 3, 0,10,15.00,30.00,Tuesday
10,81881685.21933495
2215,84280724.862425
2,3, 1, 3, 0,10,30.00,45.00,Tuesday
10,81282813.93209243
2215,86075043.93165685
2,3, 1, 3, 0,10,45.00,60.00,Tuesday
10,80784932.71863176
2215,84442836.3325501
2,3, 1, 3, 0,10, 0.00,60.00,Tuesday
11,326349563.044922
2216,335722853.3358068
5530,326349563.0449222
2,3, 1, 3, 0,11, 0.00,15.00,Tuesday
10,67188065.56921111
2215,88648063.29445455
2,3, 1, 3, 0,11,15.00,30.00,Tuesday
10,66839344.54829854
2215,75460961.048605
2,3, 1, 3, 0,11,30.00,45.00,Tuesday
10,66496971.29551674
2215,87939802.26750568
2,3, 1, 3, 0,11,45.00,60.00,Tuesday
10,66146938.14437727
2215,89248060.04543221
2,3, 1, 3, 0,11, 0.00,60.00,Tuesday
11,266671319.55740366
2216,341296886.6559974
5530,266671319.55740375
2,3, 1, 3, 0,12, 0.00,15.00,Tuesday
10,65628830.55397772
2215,78864728.21688782
2,3, 1, 3, 0,12,15.00,30.00,Tuesday
10,65445562.580303627
2215,90716581.77963102
2,3, 1, 3, 0,12,30.00,45.00,Tuesday
10,65265276.671222779
2215,78012970.56323569
2,3, 1, 3, 0,12,45.00,60.00,Tuesday
10,65116361.11322687
2215,90102158.00490901
2,3, 1, 3, 0,12, 0.00,60.00,Tuesday
11,261456030.91873098
2216,337696438.5646635
5530,261456030.9187311
2,3, 1, 3, 0,13, 0.00,15.00,Tuesday
10,64367318.72313345
2215,76404177.7311704
2,3, 1, 3, 0,13,15.00,30.00,Tuesday
10,64164163.682042967
2215,88226144.38292353
2,3, 1, 3, 0,13,30.00,45.00,Tuesday
10,63914285.2731301
2215,75373121.34364495
2,3, 1, 3, 0,13,45.00,60.00,Tuesday
10,63572819.72042313
2215,87357293.47630897
2,3, 1, 3, 0,13, 0.00,60.00,Tuesday
11,256018587.39872966
2216,327360736.9340478
5530,256018587.39872966
2,3, 1, 3, 0,14, 0.00,15.00,Tuesday
10,64101026.02284826
2215,72847624.38561556
2,3, 1, 3, 0,14,15.00,30.00,Tuesday
10,64030006.87278761
2215,87898137.75246619
2,3, 1, 3, 0,14,30.00,45.00,Tuesday
10,64025366.93472366
2215,75912766.55388077
2,3, 1, 3, 0,14,45.00,60.00,Tuesday
10,64038726.50867013
2215,88270445.81618442
2,3, 1, 3, 0,14, 0.00,60.00,Tuesday
11,256195126.33902965
2216,324928974.5081469
5530,256195126.33902977
2,3, 1, 3, 0,15, 0.00,15.00,Tuesday
10,64111639.38488512
2215,75971869.3016183
2,3, 1, 3, 0,15,15.00,30.00,Tuesday
10,64188309.10325214
2215,87106344.49271967
2,3, 1, 3, 0,15,30.00,45.00,Tuesday
10,64230529.6584735
2215,72878518.62591189
2,3, 1, 3, 0,15,45.00,60.00,Tuesday
10,64294699.3670133
2215,85367833.1595481
2,3, 1, 3, 0,15, 0.00,60.00,Tuesday
11,256825177.51362408
2216,321324565.579798
5530,256825177.5136242
2,3, 1, 3, 0,16, 0.00,15.00,Tuesday
10,64383513.460126649
2215,74262078.77560912
2,3, 1, 3, 0,16,15.00,30.00,Tuesday
10,64562516.335119519
2215,81978678.48664741
2,3, 1, 3, 0,16,30.00,45.00,Tuesday
10,64678123.507686439
2215,80193562.55183046
2,3, 1, 3, 0,16,45.00,60.00,Tuesday
10,64831296.068574499
2215,78663432.90145707
2,3, 1, 3, 0,16, 0.00,60.00,Tuesday
11,258455449.37150709
2216,315097752.71554407
5530,258455449.37150724
2,3, 1, 3, 0,17, 0.00,15.00,Tuesday
10,75412033.54455114
2215,62487598.060299549
2,3, 1, 3, 0,17,15.00,30.00,Tuesday
10,73209186.314719
2215,45249568.07868588
2,3, 1, 3, 0,17,30.00,45.00,Tuesday
10,76925290.66493078
2215,57718818.298449847
2,3, 1, 3, 0,17,45.00,60.00,Tuesday
10,77258226.901351
2215,45341211.931330848
2,3, 1, 3, 0,17, 0.00,60.00,Tuesday
11,302804737.4255519
2216,210797196.36876614
5530,302804737.425552
2,3, 1, 3, 0,18, 0.00,15.00,Tuesday
10,96550184.00497565
2215,22051107.05097451
2,3, 1, 3, 0,18,15.00,30.00,Tuesday
10,96890467.50613295
2215,22127994.70835945
2,3, 1, 3, 0,18,30.00,45.00,Tuesday
10,97441958.08055508
2215,9369638.349385417
2,3, 1, 3, 0,18,45.00,60.00,Tuesday
10,97891217.2806415
2215,22220638.177456235
2,3, 1, 3, 0,18, 0.00,60.00,Tuesday
11,388773826.87230518
2216,75769378.28617561
5530,388773826.87230536
2,3, 1, 3, 0,19, 0.00,15.00,Tuesday
10,87663213.89225972
2215,24981543.458606725
2,3, 1, 3, 0,19,15.00,30.00,Tuesday
10,87667475.0718154
2215,25119034.17611902
2,3, 1, 3, 0,19,30.00,45.00,Tuesday
10,87645088.50790765
2215,25278675.002419253
2,3, 1, 3, 0,19,45.00,60.00,Tuesday
10,87624936.97675903
2215,35189438.825484249
2,3, 1, 3, 0,19, 0.00,60.00,Tuesday
11,350600714.4487418
2216,110568691.46262925
5530,350600714.44874188
2,3, 1, 3, 0,20, 0.00,15.00,Tuesday
10,86770299.39371455
2215,15781461.078478804
2,3, 1, 3, 0,20,15.00,30.00,Tuesday
10,86835117.86244995
2215,25144537.36966905
2,3, 1, 3, 0,20,30.00,45.00,Tuesday
10,86895885.35812848
2215,25258665.807403245
2,3, 1, 3, 0,20,45.00,60.00,Tuesday
10,86958266.57566302
2215,25313708.21629355
2,3, 1, 3, 0,20, 0.00,60.00,Tuesday
11,347459569.189956
2216,91498372.47184465